FoamFile
{{
    version     2.0;
    format      ascii;
    class       {class_name};
    object      {object_name};
}}